REMARK  Prepared by Open Docking (odock)
REMARK  16 atoms, 4 rotatable bonds
TORSDOF 4
ATOM      1  C1  UNL     1       4.650  -0.310   0.616  1.00  0.00     0.000 C 
ATOM      2  C2  UNL     1       3.182   0.118   0.560  1.00  0.00     0.000 C 
ATOM      3  C3  UNL     1       3.071   1.492  -0.106  1.00  0.00     0.000 C 
ATOM      4  C4  UNL     1       2.354  -0.951  -0.180  1.00  0.00     0.000 C 
ATOM      5  C5  UNL     1       0.862  -0.729  -0.104  1.00  0.00     0.000 A 
ATOM      6  C6  UNL     1       0.170  -0.953   1.092  1.00  0.00     0.000 A 
ATOM      7  C7  UNL     1      -1.210  -0.742   1.165  1.00  0.00     0.000 A 
ATOM      8  C8  UNL     1      -1.927  -0.304   0.044  1.00  0.00     0.000 A 
ATOM      9  C9  UNL     1      -1.230  -0.079  -1.152  1.00  0.00     0.000 A 
ATOM     10  C10 UNL     1       0.149  -0.290  -1.225  1.00  0.00     0.000 A 
ATOM     11  C11 UNL     1      -3.425  -0.078   0.141  1.00  0.00     0.000 C 
ATOM     12  C12 UNL     1      -4.205  -1.012  -0.787  1.00  0.00     0.000 C 
ATOM     13  C13 UNL     1      -3.796   1.367  -0.133  1.00  0.00     0.000 C 
ATOM     14  O14 UNL     1      -4.103   1.858  -1.208  1.00  0.00     0.000 OA
ATOM     15  O15 UNL     1      -3.744   2.139   0.974  1.00  0.00     0.000 OA
ATOM     16  H16 UNL     1      -3.967   3.102   0.917  1.00  0.00     0.000 HD
