REMARK  Prepared by Open Docking (odock)
REMARK  8 atoms, 0 rotatable bonds
TORSDOF 0
ATOM      1  O1  UNL     1       2.485   0.195  -0.003  1.00  0.00     0.000 OA
ATOM      2  C2  UNL     1       1.127   0.075  -0.041  1.00  0.00     0.000 A 
ATOM      3  C3  UNL     1       0.319   1.116  -0.489  1.00  0.00     0.000 A 
ATOM      4  C4  UNL     1      -1.067   0.948  -0.510  1.00  0.00     0.000 A 
ATOM      5  C5  UNL     1      -1.633  -0.256  -0.086  1.00  0.00     0.000 A 
ATOM      6  C6  UNL     1      -0.814  -1.293   0.361  1.00  0.00     0.000 A 
ATOM      7  C7  UNL     1       0.571  -1.127   0.383  1.00  0.00     0.000 A 
ATOM      8  H8  UNL     1       3.040  -0.559   0.319  1.00  0.00     0.000 HD
