REMARK  Prepared by Open Docking (odock)
REMARK  21 atoms, 5 rotatable bonds
TORSDOF 5
ATOM      1  C1  UNL     1       2.311   0.887  -1.534  1.00  0.00     0.000 C 
ATOM      2  C2  UNL     1       2.962   0.199  -0.322  1.00  0.00     0.000 C 
ATOM      3  C3  UNL     1       3.872  -0.947  -0.791  1.00  0.00     0.000 C 
ATOM      4  C4  UNL     1       3.828   1.242   0.413  1.00  0.00     0.000 C 
ATOM      5  N5  UNL     1       1.946  -0.252   0.647  1.00  0.00     0.000 NA
ATOM      6  C6  UNL     1       1.057  -1.332   0.191  1.00  0.00     0.000 C 
ATOM      7  C7  UNL     1      -0.138  -1.567   1.156  1.00  0.00     0.000 C 
ATOM      8  O8  UNL     1      -0.636  -2.900   0.981  1.00  0.00     0.000 OA
ATOM      9  C9  UNL     1      -1.259  -0.565   0.947  1.00  0.00     0.000 A 
ATOM     10  C10 UNL     1      -1.179   0.705   1.537  1.00  0.00     0.000 A 
ATOM     11  C11 UNL     1      -2.189   1.648   1.342  1.00  0.00     0.000 A 
ATOM     12  C12 UNL     1      -3.288   1.327   0.548  1.00  0.00     0.000 A 
ATOM     13  O13 UNL     1      -4.279   2.249   0.344  1.00  0.00     0.000 OA
ATOM     14  C14 UNL     1      -3.398   0.077  -0.069  1.00  0.00     0.000 A 
ATOM     15  C15 UNL     1      -4.596  -0.305  -0.901  1.00  0.00     0.000 C 
ATOM     16  O16 UNL     1      -4.910   0.684  -1.875  1.00  0.00     0.000 OA
ATOM     17  C17 UNL     1      -2.374  -0.862   0.144  1.00  0.00     0.000 A 
ATOM     18  H18 UNL     1       2.439  -0.583   1.489  1.00  0.00     0.000 HD
ATOM     19  H19 UNL     1      -0.790  -3.313   1.867  1.00  0.00     0.000 HD
ATOM     20  H20 UNL     1      -5.059   2.020  -0.221  1.00  0.00     0.000 HD
ATOM     21  H21 UNL     1      -5.176   1.522  -1.421  1.00  0.00     0.000 HD
