REMARK  Generated by Open Docking (odock) preparation
ATOM      1    N REC     1      17.047  14.099   3.625  1.00  0.00     0.000 NA
ATOM      2    C REC     1      16.967  12.784   4.338  1.00  0.00     0.000 C 
ATOM      3    C REC     1      15.685  12.755   5.133  1.00  0.00     0.000 C 
ATOM      4    O REC     1      15.268  13.825   5.594  1.00  0.00     0.000 OA
ATOM      5    C REC     1      18.170  12.703   5.337  1.00  0.00     0.000 C 
ATOM      6    O REC     1      19.334  12.829   4.463  1.00  0.00     0.000 OA
ATOM      7    C REC     1      18.150  11.546   6.304  1.00  0.00     0.000 C 
ATOM      8    N REC     1      15.115  11.555   5.265  1.00  0.00     0.000 N 
ATOM      9    C REC     1      13.856  11.469   6.066  1.00  0.00     0.000 C 
ATOM     10    C REC     1      14.164  10.785   7.379  1.00  0.00     0.000 C 
ATOM     11    O REC     1      14.993   9.862   7.443  1.00  0.00     0.000 OA
ATOM     12    C REC     1      12.732  10.711   5.261  1.00  0.00     0.000 C 
ATOM     13    O REC     1      13.308   9.439   4.926  1.00  0.00     0.000 OA
ATOM     14    C REC     1      12.484  11.442   3.895  1.00  0.00     0.000 C 
ATOM     15    N REC     1      13.488  11.241   8.417  1.00  0.00     0.000 N 
ATOM     16    C REC     1      13.660  10.707   9.787  1.00  0.00     0.000 C 
ATOM     17    C REC     1      12.269  10.431  10.323  1.00  0.00     0.000 C 
ATOM     18    O REC     1      11.393  11.308  10.185  1.00  0.00     0.000 OA
ATOM     19    C REC     1      14.368  11.748  10.691  1.00  0.00     0.000 C 
ATOM     20    S REC     1      15.885  12.426  10.016  1.00  0.00     0.000 S 
ATOM     21    N REC     1      12.019   9.272  10.928  1.00  0.00     0.000 N 
ATOM     22    C REC     1      10.646   8.991  11.408  1.00  0.00     0.000 C 
ATOM     23    C REC     1      10.654   8.793  12.919  1.00  0.00     0.000 C 
ATOM     24    O REC     1      11.659   8.296  13.491  1.00  0.00     0.000 OA
ATOM     25    C REC     1      10.057   7.752  10.682  1.00  0.00     0.000 C 
ATOM     26    S REC     1       9.837   8.018   8.904  1.00  0.00     0.000 S 
ATOM     27    N REC     1       9.561   9.108  13.563  1.00  0.00     0.000 N 
ATOM     28    C REC     1       9.448   9.034  15.012  1.00  0.00     0.000 C 
ATOM     29    C REC     1       9.288   7.670  15.606  1.00  0.00     0.000 C 
ATOM     30    O REC     1       9.490   7.519  16.819  1.00  0.00     0.000 OA
ATOM     31    C REC     1       8.230   9.957  15.345  1.00  0.00     0.000 C 
ATOM     32    C REC     1       7.338   9.786  14.114  1.00  0.00     0.000 C 
ATOM     33    C REC     1       8.366   9.804  12.958  1.00  0.00     0.000 C 
ATOM     34    N REC     1       8.875   6.686  14.796  1.00  0.00     0.000 N 
ATOM     35    C REC     1       8.673   5.314  15.279  1.00  0.00     0.000 C 
ATOM     36    C REC     1       8.753   4.376  14.083  1.00  0.00     0.000 C 
ATOM     37    O REC     1       8.726   4.858  12.923  1.00  0.00     0.000 OA
ATOM     38    C REC     1       7.340   5.121  15.996  1.00  0.00     0.000 C 
ATOM     39    O REC     1       6.274   5.220  15.031  1.00  0.00     0.000 OA
ATOM     40    N REC     1       8.881   3.075  14.358  1.00  0.00     0.000 N 
ATOM     41    C REC     1       8.912   2.083  13.258  1.00  0.00     0.000 C 
ATOM     42    C REC     1       7.581   2.090  12.506  1.00  0.00     0.000 C 
ATOM     43    O REC     1       7.670   2.031  11.245  1.00  0.00     0.000 OA
ATOM     44    C REC     1       9.207   0.677  13.924  1.00  0.00     0.000 C 
ATOM     45    C REC     1      10.714   0.702  14.312  1.00  0.00     0.000 C 
ATOM     46    C REC     1       8.811  -0.477  12.969  1.00  0.00     0.000 C 
ATOM     47    C REC     1      11.185  -0.516  15.142  1.00  0.00     0.000 C 
ATOM     48    N REC     1       6.458   2.162  13.159  1.00  0.00     0.000 N 
ATOM     49    C REC     1       5.145   2.209  12.453  1.00  0.00     0.000 C 
ATOM     50    C REC     1       5.115   3.379  11.461  1.00  0.00     0.000 C 
ATOM     51    O REC     1       4.664   3.268  10.343  1.00  0.00     0.000 OA
ATOM     52    C REC     1       3.995   2.354  13.478  1.00  0.00     0.000 C 
ATOM     53    C REC     1       2.716   2.891  12.869  1.00  0.00     0.000 C 
ATOM     54    C REC     1       3.758   1.032  14.208  1.00  0.00     0.000 C 
ATOM     55    N REC     1       5.606   4.546  11.941  1.00  0.00     0.000 N 
ATOM     56    C REC     1       5.598   5.767  11.082  1.00  0.00     0.000 C 
ATOM     57    C REC     1       6.441   5.527   9.850  1.00  0.00     0.000 C 
ATOM     58    O REC     1       6.052   5.933   8.744  1.00  0.00     0.000 OA
ATOM     59    C REC     1       6.022   6.977  11.891  1.00  0.00     0.000 C 
ATOM     60    N REC     1       7.647   4.909  10.005  1.00  0.00     0.000 N 
ATOM     61    C REC     1       8.496   4.609   8.837  1.00  0.00     0.000 C 
ATOM     62    C REC     1       7.798   3.609   7.876  1.00  0.00     0.000 C 
ATOM     63    O REC     1       7.878   3.778   6.651  1.00  0.00     0.000 OA
ATOM     64    C REC     1       9.847   4.020   9.305  1.00  0.00     0.000 C 
ATOM     65    C REC     1      10.752   3.607   8.149  1.00  0.00     0.000 C 
ATOM     66    C REC     1      11.226   4.699   7.244  1.00  0.00     0.000 C 
ATOM     67    N REC     1      12.143   5.571   8.035  1.00  0.00     0.000 NA
ATOM     68    C REC     1      12.758   6.609   7.443  1.00  0.00     0.000 C 
ATOM     69    N REC     1      12.539   6.932   6.158  1.00  0.00     0.000 NA
ATOM     70    N REC     1      13.601   7.322   8.202  1.00  0.00     0.000 N 
ATOM     71    N REC     1       7.186   2.582   8.445  1.00  0.00     0.000 N 
ATOM     72    C REC     1       6.500   1.584   7.565  1.00  0.00     0.000 C 
ATOM     73    C REC     1       5.382   2.313   6.773  1.00  0.00     0.000 C 
ATOM     74    O REC     1       5.213   2.016   5.557  1.00  0.00     0.000 OA
ATOM     75    C REC     1       5.908   0.462   8.400  1.00  0.00     0.000 C 
ATOM     76    O REC     1       6.990  -0.272   9.012  1.00  0.00     0.000 OA
ATOM     77    N REC     1       4.648   3.182   7.446  1.00  0.00     0.000 N 
ATOM     78    C REC     1       3.545   3.935   6.751  1.00  0.00     0.000 C 
ATOM     79    C REC     1       4.107   4.851   5.691  1.00  0.00     0.000 C 
ATOM     80    O REC     1       3.536   5.001   4.617  1.00  0.00     0.000 OA
ATOM     81    C REC     1       2.663   4.677   7.748  1.00  0.00     0.000 C 
ATOM     82    C REC     1       1.802   3.735   8.610  1.00  0.00     0.000 C 
ATOM     83    O REC     1       1.567   2.613   8.165  1.00  0.00     0.000 OA
ATOM     84    N REC     1       1.394   4.252   9.767  1.00  0.00     0.000 N 
ATOM     85    N REC     1       5.259   5.498   6.005  1.00  0.00     0.000 N 
ATOM     86    C REC     1       5.929   6.358   5.055  1.00  0.00     0.000 C 
ATOM     87    C REC     1       6.304   5.578   3.799  1.00  0.00     0.000 C 
ATOM     88    O REC     1       6.136   6.072   2.653  1.00  0.00     0.000 OA
ATOM     89    C REC     1       7.183   6.994   5.754  1.00  0.00     0.000 C 
ATOM     90    C REC     1       7.884   8.006   4.883  1.00  0.00     0.000 C 
ATOM     91    C REC     1       8.906   7.586   4.027  1.00  0.00     0.000 C 
ATOM     92    C REC     1       7.532   9.373   4.983  1.00  0.00     0.000 C 
ATOM     93    C REC     1       9.560   8.539   3.194  1.00  0.00     0.000 C 
ATOM     94    C REC     1       8.176  10.281   4.145  1.00  0.00     0.000 C 
ATOM     95    C REC     1       9.141   9.845   3.292  1.00  0.00     0.000 C 
ATOM     96    N REC     1       6.900   4.390   3.989  1.00  0.00     0.000 N 
ATOM     97    C REC     1       7.331   3.607   2.791  1.00  0.00     0.000 C 
ATOM     98    C REC     1       6.116   3.210   1.915  1.00  0.00     0.000 C 
ATOM     99    O REC     1       6.240   3.144   0.684  1.00  0.00     0.000 OA
ATOM    100    C REC     1       8.145   2.404   3.240  1.00  0.00     0.000 C 
ATOM    101    C REC     1       9.555   2.856   3.730  1.00  0.00     0.000 C 
ATOM    102    O REC     1      10.013   3.895   3.323  1.00  0.00     0.000 OA
ATOM    103    N REC     1      10.120   1.956   4.539  1.00  0.00     0.000 N 
ATOM    104    N REC     1       4.993   2.927   2.571  1.00  0.00     0.000 N 
ATOM    105    C REC     1       3.782   2.599   1.742  1.00  0.00     0.000 C 
ATOM    106    C REC     1       3.296   3.871   1.004  1.00  0.00     0.000 C 
ATOM    107    O REC     1       2.947   3.817  -0.189  1.00  0.00     0.000 OA
ATOM    108    C REC     1       2.698   1.953   2.608  1.00  0.00     0.000 C 
ATOM    109    C REC     1       1.384   1.826   1.806  1.00  0.00     0.000 C 
ATOM    110    C REC     1       3.174   0.533   3.005  1.00  0.00     0.000 C 
ATOM    111    N REC     1       3.321   4.987   1.720  1.00  0.00     0.000 N 
ATOM    112    C REC     1       2.890   6.285   1.126  1.00  0.00     0.000 C 
ATOM    113    C REC     1       3.687   6.597  -0.111  1.00  0.00     0.000 C 
ATOM    114    O REC     1       3.200   7.147  -1.103  1.00  0.00     0.000 OA
ATOM    115    C REC     1       3.039   7.369   2.240  1.00  0.00     0.000 C 
ATOM    116    S REC     1       2.559   9.014   1.649  1.00  0.00     0.000 S 
ATOM    117    N REC     1       4.997   6.227  -0.100  1.00  0.00     0.000 N 
ATOM    118    C REC     1       5.895   6.489  -1.213  1.00  0.00     0.000 C 
ATOM    119    C REC     1       5.738   5.560  -2.409  1.00  0.00     0.000 C 
ATOM    120    O REC     1       6.228   5.901  -3.507  1.00  0.00     0.000 OA
ATOM    121    C REC     1       7.370   6.507  -0.731  1.00  0.00     0.000 C 
ATOM    122    C REC     1       7.717   7.687   0.206  1.00  0.00     0.000 C 
ATOM    123    C REC     1       7.949   8.947  -0.615  1.00  0.00     0.000 C 
ATOM    124    N REC     1       9.212   8.856  -1.337  1.00  0.00     0.000 NA
ATOM    125    C REC     1       9.537   9.533  -2.431  1.00  0.00     0.000 C 
ATOM    126    N REC     1       8.659  10.350  -3.032  1.00  0.00     0.000 NA
ATOM    127    N REC     1      10.793   9.491  -2.899  1.00  0.00     0.000 N 
ATOM    128    N REC     1       5.051   4.411  -2.204  1.00  0.00     0.000 N 
ATOM    129    C REC     1       4.933   3.431  -3.326  1.00  0.00     0.000 C 
ATOM    130    C REC     1       4.397   4.014  -4.620  1.00  0.00     0.000 C 
ATOM    131    O REC     1       4.988   3.755  -5.687  1.00  0.00     0.000 OA
ATOM    132    C REC     1       4.196   2.184  -2.863  1.00  0.00     0.000 C 
ATOM    133    C REC     1       4.960   1.178  -1.991  1.00  0.00     0.000 C 
ATOM    134    C REC     1       3.907   0.097  -1.634  1.00  0.00     0.000 C 
ATOM    135    C REC     1       6.129   0.606  -2.768  1.00  0.00     0.000 C 
ATOM    136    N REC     1       3.329   4.795  -4.543  1.00  0.00     0.000 N 
ATOM    137    C REC     1       2.792   5.376  -5.797  1.00  0.00     0.000 C 
ATOM    138    C REC     1       3.573   6.540  -6.322  1.00  0.00     0.000 C 
ATOM    139    O REC     1       3.260   7.045  -7.422  1.00  0.00     0.000 OA
ATOM    140    C REC     1       1.358   5.766  -5.472  1.00  0.00     0.000 C 
ATOM    141    C REC     1       1.223   5.694  -3.993  1.00  0.00     0.000 C 
ATOM    142    C REC     1       2.421   4.941  -3.408  1.00  0.00     0.000 C 
ATOM    143    N REC     1       4.565   7.047  -5.559  1.00  0.00     0.000 N 
ATOM    144    C REC     1       5.366   8.191  -6.018  1.00  0.00     0.000 C 
ATOM    145    C REC     1       5.007   9.481  -5.280  1.00  0.00     0.000 C 
ATOM    146    O REC     1       5.535  10.510  -5.730  1.00  0.00     0.000 OA
ATOM    147    N REC     1       4.181   9.438  -4.262  1.00  0.00     0.000 N 
ATOM    148    C REC     1       3.767  10.609  -3.513  1.00  0.00     0.000 C 
ATOM    149    C REC     1       5.017  11.397  -3.042  1.00  0.00     0.000 C 
ATOM    150    O REC     1       5.947  10.757  -2.523  1.00  0.00     0.000 OA
ATOM    151    C REC     1       2.992  10.188  -2.225  1.00  0.00     0.000 C 
ATOM    152    O REC     1       2.051   9.144  -2.623  1.00  0.00     0.000 OA
ATOM    153    C REC     1       2.260  11.349  -1.551  1.00  0.00     0.000 C 
ATOM    154    N REC     1       4.971  12.703  -3.176  1.00  0.00     0.000 N 
ATOM    155    C REC     1       6.143  13.513  -2.696  1.00  0.00     0.000 C 
ATOM    156    C REC     1       6.400  13.233  -1.225  1.00  0.00     0.000 C 
ATOM    157    O REC     1       5.485  13.061  -0.382  1.00  0.00     0.000 OA
ATOM    158    C REC     1       5.703  14.969  -2.920  1.00  0.00     0.000 C 
ATOM    159    C REC     1       4.676  14.893  -3.996  1.00  0.00     0.000 C 
ATOM    160    C REC     1       3.964  13.567  -3.811  1.00  0.00     0.000 C 
ATOM    161    N REC     1       7.728  13.297  -0.921  1.00  0.00     0.000 N 
ATOM    162    C REC     1       8.114  13.103   0.500  1.00  0.00     0.000 C 
ATOM    163    C REC     1       7.427  14.073   1.410  1.00  0.00     0.000 C 
ATOM    164    O REC     1       7.036  13.682   2.540  1.00  0.00     0.000 OA
ATOM    165    C REC     1       9.648  13.285   0.660  1.00  0.00     0.000 C 
ATOM    166    C REC     1      10.440  12.093   0.063  1.00  0.00     0.000 C 
ATOM    167    C REC     1      11.941  12.170   0.391  1.00  0.00     0.000 C 
ATOM    168    O REC     1      12.416  13.225   0.681  1.00  0.00     0.000 OA
ATOM    169    O REC     1      12.539  11.070   0.292  1.00  0.00     0.000 OA
ATOM    170    N REC     1       7.212  15.334   0.966  1.00  0.00     0.000 N 
ATOM    171    C REC     1       6.614  16.317   1.913  1.00  0.00     0.000 C 
ATOM    172    C REC     1       5.212  15.936   2.350  1.00  0.00     0.000 C 
ATOM    173    O REC     1       4.782  16.166   3.495  1.00  0.00     0.000 OA
ATOM    174    C REC     1       6.605  17.695   1.246  1.00  0.00     0.000 C 
ATOM    175    N REC     1       4.445  15.318   1.405  1.00  0.00     0.000 N 
ATOM    176    C REC     1       3.074  14.894   1.756  1.00  0.00     0.000 C 
ATOM    177    C REC     1       3.085  13.643   2.645  1.00  0.00     0.000 C 
ATOM    178    O REC     1       2.315  13.523   3.578  1.00  0.00     0.000 OA
ATOM    179    C REC     1       2.204  14.637   0.462  1.00  0.00     0.000 C 
ATOM    180    C REC     1       1.815  16.048  -0.129  1.00  0.00     0.000 C 
ATOM    181    C REC     1       0.903  13.864   0.811  1.00  0.00     0.000 C 
ATOM    182    C REC     1       0.756  16.761   0.757  1.00  0.00     0.000 C 
ATOM    183    N REC     1       4.032  12.764   2.313  1.00  0.00     0.000 N 
ATOM    184    C REC     1       4.180  11.549   3.187  1.00  0.00     0.000 C 
ATOM    185    C REC     1       4.632  11.944   4.596  1.00  0.00     0.000 C 
ATOM    186    O REC     1       4.227  11.252   5.547  1.00  0.00     0.000 OA
ATOM    187    C REC     1       5.038  10.518   2.539  1.00  0.00     0.000 C 
ATOM    188    S REC     1       4.349   9.794   1.022  1.00  0.00     0.000 S 
ATOM    189    N REC     1       5.408  13.012   4.694  1.00  0.00     0.000 N 
ATOM    190    C REC     1       5.879  13.502   6.026  1.00  0.00     0.000 C 
ATOM    191    C REC     1       4.696  13.908   6.882  1.00  0.00     0.000 C 
ATOM    192    O REC     1       4.528  13.422   8.025  1.00  0.00     0.000 OA
ATOM    193    C REC     1       6.880  14.615   5.830  1.00  0.00     0.000 C 
ATOM    194    N REC     1       3.827  14.802   6.358  1.00  0.00     0.000 N 
ATOM    195    C REC     1       2.691  15.221   7.194  1.00  0.00     0.000 C 
ATOM    196    C REC     1       1.672  14.132   7.434  1.00  0.00     0.000 C 
ATOM    197    O REC     1       0.947  14.112   8.468  1.00  0.00     0.000 OA
ATOM    198    C REC     1       1.986  16.520   6.614  1.00  0.00     0.000 C 
ATOM    199    O REC     1       1.664  16.221   5.230  1.00  0.00     0.000 OA
ATOM    200    C REC     1       2.914  17.739   6.700  1.00  0.00     0.000 C 
ATOM    201    N REC     1       1.621  13.190   6.511  1.00  0.00     0.000 N 
ATOM    202    C REC     1       0.715  12.045   6.657  1.00  0.00     0.000 C 
ATOM    203    C REC     1       1.125  11.125   7.815  1.00  0.00     0.000 C 
ATOM    204    O REC     1       0.286  10.632   8.545  1.00  0.00     0.000 OA
ATOM    205    C REC     1       0.755  11.229   5.322  1.00  0.00     0.000 C 
ATOM    206    C REC     1      -0.203  10.044   5.354  1.00  0.00     0.000 C 
ATOM    207    C REC     1      -1.547  10.337   5.645  1.00  0.00     0.000 C 
ATOM    208    C REC     1       0.193   8.750   5.100  1.00  0.00     0.000 C 
ATOM    209    C REC     1      -2.496   9.329   5.673  1.00  0.00     0.000 C 
ATOM    210    C REC     1      -0.801   7.705   5.156  1.00  0.00     0.000 C 
ATOM    211    C REC     1      -2.079   8.031   5.430  1.00  0.00     0.000 C 
ATOM    212    O REC     1      -3.097   7.057   5.458  1.00  0.00     0.000 OA
ATOM    213    N REC     1       2.470  10.984   7.995  1.00  0.00     0.000 N 
ATOM    214    C REC     1       2.986   9.994   8.950  1.00  0.00     0.000 C 
ATOM    215    C REC     1       3.609  10.505  10.230  1.00  0.00     0.000 C 
ATOM    216    O REC     1       3.766   9.715  11.186  1.00  0.00     0.000 OA
ATOM    217    C REC     1       4.076   9.103   8.225  1.00  0.00     0.000 C 
ATOM    218    O REC     1       5.125  10.027   7.824  1.00  0.00     0.000 OA
ATOM    219    C REC     1       3.493   8.324   7.035  1.00  0.00     0.000 C 
ATOM    220    N REC     1       3.984  11.764  10.241  1.00  0.00     0.000 N 
ATOM    221    C REC     1       4.769  12.336  11.360  1.00  0.00     0.000 C 
ATOM    222    C REC     1       6.255  12.243  11.106  1.00  0.00     0.000 C 
ATOM    223    O REC     1       7.037  12.750  11.954  1.00  0.00     0.000 OA
ATOM    224    N REC     1       6.710  11.631   9.992  1.00  0.00     0.000 N 
ATOM    225    C REC     1       8.140  11.694   9.635  1.00  0.00     0.000 C 
ATOM    226    C REC     1       8.500  13.141   9.206  1.00  0.00     0.000 C 
ATOM    227    O REC     1       7.581  13.949   8.944  1.00  0.00     0.000 OA
ATOM    228    C REC     1       8.504  10.686   8.530  1.00  0.00     0.000 C 
ATOM    229    S REC     1       8.048   8.987   8.881  1.00  0.00     0.000 S 
ATOM    230    N REC     1       9.793  13.410   9.173  1.00  0.00     0.000 N 
ATOM    231    C REC     1      10.280  14.760   8.823  1.00  0.00     0.000 C 
ATOM    232    C REC     1      11.346  14.658   7.743  1.00  0.00     0.000 C 
ATOM    233    O REC     1      11.971  13.583   7.552  1.00  0.00     0.000 OA
ATOM    234    C REC     1      10.790  15.535  10.085  1.00  0.00     0.000 C 
ATOM    235    C REC     1      12.059  14.803  10.671  1.00  0.00     0.000 C 
ATOM    236    C REC     1       9.684  15.686  11.138  1.00  0.00     0.000 C 
ATOM    237    C REC     1      12.733  15.676  11.781  1.00  0.00     0.000 C 
ATOM    238    N REC     1      11.490  15.773   7.038  1.00  0.00     0.000 N 
ATOM    239    C REC     1      12.552  15.877   6.036  1.00  0.00     0.000 C 
ATOM    240    C REC     1      13.590  16.917   6.560  1.00  0.00     0.000 C 
ATOM    241    O REC     1      13.168  18.006   6.945  1.00  0.00     0.000 OA
ATOM    242    C REC     1      11.987  16.360   4.681  1.00  0.00     0.000 C 
ATOM    243    C REC     1      10.914  15.338   4.163  1.00  0.00     0.000 C 
ATOM    244    C REC     1      13.131  16.517   3.629  1.00  0.00     0.000 C 
ATOM    245    C REC     1      10.151  16.024   2.938  1.00  0.00     0.000 C 
ATOM    246    N REC     1      14.856  16.493   6.536  1.00  0.00     0.000 N 
ATOM    247    C REC     1      15.930  17.454   6.941  1.00  0.00     0.000 C 
ATOM    248    C REC     1      16.913  17.550   5.819  1.00  0.00     0.000 C 
ATOM    249    O REC     1      17.097  16.660   4.970  1.00  0.00     0.000 OA
ATOM    250    C REC     1      16.622  16.995   8.285  1.00  0.00     0.000 C 
ATOM    251    C REC     1      17.360  15.651   8.067  1.00  0.00     0.000 C 
ATOM    252    C REC     1      15.592  16.974   9.434  1.00  0.00     0.000 C 
ATOM    253    C REC     1      18.298  15.206   9.219  1.00  0.00     0.000 C 
ATOM    254    N REC     1      17.664  18.669   5.806  1.00  0.00     0.000 N 
ATOM    255    C REC     1      18.635  18.861   4.738  1.00  0.00     0.000 C 
ATOM    256    C REC     1      19.925  18.042   4.949  1.00  0.00     0.000 C 
ATOM    257    O REC     1      20.593  17.742   3.945  1.00  0.00     0.000 OA
ATOM    258    C REC     1      18.945  20.364   4.783  1.00  0.00     0.000 C 
ATOM    259    C REC     1      18.238  20.937   5.908  1.00  0.00     0.000 C 
ATOM    260    C REC     1      17.371  19.900   6.596  1.00  0.00     0.000 C 
ATOM    261    N REC     1      20.172  17.730   6.217  1.00  0.00     0.000 N 
ATOM    262    C REC     1      21.452  16.969   6.513  1.00  0.00     0.000 C 
ATOM    263    C REC     1      21.143  15.478   6.427  1.00  0.00     0.000 C 
ATOM    264    O REC     1      20.138  15.023   5.878  1.00  0.00     0.000 OA
ATOM    265    N REC     1      22.055  14.701   7.032  1.00  0.00     0.000 N 
ATOM    266    C REC     1      22.019  13.242   7.020  1.00  0.00     0.000 C 
ATOM    267    C REC     1      21.944  12.628   8.396  1.00  0.00     0.000 C 
ATOM    268    O REC     1      21.869  11.387   8.435  1.00  0.00     0.000 OA
ATOM    269    C REC     1      23.246  12.697   6.275  1.00  0.00     0.000 C 
ATOM    270    N REC     1      21.894  13.435   9.436  1.00  0.00     0.000 N 
ATOM    271    C REC     1      21.936  12.911  10.809  1.00  0.00     0.000 C 
ATOM    272    C REC     1      20.615  13.191  11.521  1.00  0.00     0.000 C 
ATOM    273    O REC     1      20.357  14.317  11.948  1.00  0.00     0.000 OA
ATOM    274    C REC     1      23.131  13.601  11.593  1.00  0.00     0.000 C 
ATOM    275    O REC     1      24.284  13.401  10.709  1.00  0.00     0.000 OA
ATOM    276    C REC     1      23.340  12.935  12.962  1.00  0.00     0.000 C 
ATOM    277    N REC     1      19.827  12.110  11.642  1.00  0.00     0.000 N 
ATOM    278    C REC     1      18.504  12.312  12.298  1.00  0.00     0.000 C 
ATOM    279    C REC     1      18.684  12.451  13.784  1.00  0.00     0.000 C 
ATOM    280    O REC     1      19.533  11.718  14.362  1.00  0.00     0.000 OA
ATOM    281    C REC     1      17.582  11.117  11.996  1.00  0.00     0.000 C 
ATOM    282    S REC     1      17.199  10.929  10.237  1.00  0.00     0.000 S 
ATOM    283    N REC     1      17.880  13.266  14.426  1.00  0.00     0.000 N 
ATOM    284    C REC     1      17.924  13.421  15.877  1.00  0.00     0.000 C 
ATOM    285    C REC     1      17.392  12.206  16.594  1.00  0.00     0.000 C 
ATOM    286    O REC     1      16.652  11.368  16.033  1.00  0.00     0.000 OA
ATOM    287    C REC     1      17.076  14.658  16.145  1.00  0.00     0.000 C 
ATOM    288    C REC     1      16.098  14.689  14.997  1.00  0.00     0.000 C 
ATOM    289    C REC     1      16.859  14.150  13.779  1.00  0.00     0.000 C 
ATOM    290    N REC     1      17.728  12.124  17.884  1.00  0.00     0.000 N 
ATOM    291    C REC     1      17.334  10.956  18.691  1.00  0.00     0.000 C 
ATOM    292    C REC     1      15.875  10.688  18.871  1.00  0.00     0.000 C 
ATOM    293    O REC     1      15.434   9.550  19.166  1.00  0.00     0.000 OA
ATOM    294    N REC     1      15.036  11.747  18.715  1.00  0.00     0.000 N 
ATOM    295    C REC     1      13.564  11.573  18.836  1.00  0.00     0.000 C 
ATOM    296    C REC     1      12.936  11.227  17.470  1.00  0.00     0.000 C 
ATOM    297    O REC     1      11.720  11.040  17.428  1.00  0.00     0.000 OA
ATOM    298    C REC     1      12.933  12.737  19.580  1.00  0.00     0.000 C 
ATOM    299    C REC     1      13.140  14.094  18.958  1.00  0.00     0.000 C 
ATOM    300    O REC     1      14.109  14.303  18.212  1.00  0.00     0.000 OA
ATOM    301    O REC     1      12.267  14.963  19.265  1.00  0.00     0.000 OA
ATOM    302    N REC     1      13.725  11.174  16.425  1.00  0.00     0.000 N 
ATOM    303    C REC     1      13.257  10.745  15.081  1.00  0.00     0.000 C 
ATOM    304    C REC     1      14.275   9.687  14.612  1.00  0.00     0.000 C 
ATOM    305    O REC     1      14.930   9.862  13.568  1.00  0.00     0.000 OA
ATOM    306    C REC     1      13.200  11.914  14.071  1.00  0.00     0.000 C 
ATOM    307    C REC     1      12.000  12.819  14.399  1.00  0.00     0.000 C 
ATOM    308    C REC     1      12.119  13.853  15.332  1.00  0.00     0.000 C 
ATOM    309    C REC     1      10.775  12.617  13.762  1.00  0.00     0.000 C 
ATOM    310    C REC     1      11.045  14.675  15.610  1.00  0.00     0.000 C 
ATOM    311    C REC     1       9.676  13.433  14.048  1.00  0.00     0.000 C 
ATOM    312    C REC     1       9.802  14.456  14.996  1.00  0.00     0.000 C 
ATOM    313    O REC     1       8.740  15.265  15.269  1.00  0.00     0.000 OA
ATOM    314    N REC     1      14.342   8.640  15.422  1.00  0.00     0.000 N 
ATOM    315    C REC     1      15.445   7.667  15.246  1.00  0.00     0.000 C 
ATOM    316    C REC     1      15.171   6.533  14.280  1.00  0.00     0.000 C 
ATOM    317    O REC     1      16.093   5.705  14.039  1.00  0.00     0.000 OA
ATOM    318    C REC     1      15.680   7.099  16.682  1.00  0.00     0.000 C 
ATOM    319    N REC     1      13.966   6.502  13.739  1.00  0.00     0.000 N 
ATOM    320    C REC     1      13.512   5.395  12.878  1.00  0.00     0.000 C 
ATOM    321    C REC     1      13.311   5.853  11.455  1.00  0.00     0.000 C 
ATOM    322    O REC     1      13.733   6.929  11.026  1.00  0.00     0.000 OA
ATOM    323    C REC     1      12.266   4.769  13.501  1.00  0.00     0.000 C 
ATOM    324    C REC     1      12.538   4.304  14.922  1.00  0.00     0.000 C 
ATOM    325    O REC     1      11.982   4.849  15.886  1.00  0.00     0.000 OA
ATOM    326    N REC     1      13.407   3.298  15.015  1.00  0.00     0.000 N 
ATOM    327    O REC     1      12.703   4.973  10.746  1.00  0.00     0.000 OA
ATOM    328    H REC     1      17.102  15.003   3.135  1.00  0.00     0.000 HD
ATOM    329    H REC     1       0.000   0.000   0.000  1.00  0.00     0.000 HD
ATOM    330    H REC     1      20.123  12.914   3.871  1.00  0.00     0.000 HD
ATOM    331    H REC     1      15.528  10.718   4.830  1.00  0.00     0.000 HD
ATOM    332    H REC     1      13.705   8.562   4.695  1.00  0.00     0.000 HD
ATOM    333    H REC     1      12.811  12.002   8.267  1.00  0.00     0.000 HD
ATOM    334    H REC     1      12.770   8.580  11.061  1.00  0.00     0.000 HD
ATOM    335    H REC     1       8.694   6.898  13.805  1.00  0.00     0.000 HD
ATOM    336    H REC     1       5.542   5.288  14.368  1.00  0.00     0.000 HD
ATOM    337    H REC     1       8.958   2.761  15.336  1.00  0.00     0.000 HD
ATOM    338    H REC     1       6.476   2.187  14.189  1.00  0.00     0.000 HD
ATOM    339    H REC     1       5.985   4.591  12.898  1.00  0.00     0.000 HD
ATOM    340    H REC     1       7.968   4.649  10.948  1.00  0.00     0.000 HD
ATOM    341    H REC     1      12.371   7.180   5.172  1.00  0.00     0.000 HD
ATOM    342    H REC     1       0.000   0.000   0.000  1.00  0.00     0.000 HD
ATOM    343    H REC     1      14.249   7.870   8.785  1.00  0.00     0.000 HD
ATOM    344    H REC     1       7.182   2.472   9.469  1.00  0.00     0.000 HD
ATOM    345    H REC     1       7.732  -0.775   9.432  1.00  0.00     0.000 HD
ATOM    346    H REC     1       4.831   3.344   8.447  1.00  0.00     0.000 HD
ATOM    347    H REC     1       5.666   5.373   6.943  1.00  0.00     0.000 HD
ATOM    348    H REC     1       7.057   4.026   4.940  1.00  0.00     0.000 HD
ATOM    349    H REC     1       4.955   2.932   3.600  1.00  0.00     0.000 HD
ATOM    350    H REC     1       3.642   4.957   2.698  1.00  0.00     0.000 HD
ATOM    351    H REC     1       5.367   5.742   0.730  1.00  0.00     0.000 HD
ATOM    352    H REC     1       7.985  10.977  -3.493  1.00  0.00     0.000 HD
ATOM    353    H REC     1       0.000   0.000   0.000  1.00  0.00     0.000 HD
ATOM    354    H REC     1      11.758   9.459  -3.258  1.00  0.00     0.000 HD
ATOM    355    H REC     1       4.617   4.216  -1.290  1.00  0.00     0.000 HD
ATOM    356    H REC     1       4.764   6.625  -4.641  1.00  0.00     0.000 HD
ATOM    357    H REC     1       3.805   8.522  -3.979  1.00  0.00     0.000 HD
ATOM    358    H REC     1       1.413   8.436  -2.893  1.00  0.00     0.000 HD
ATOM    359    H REC     1       8.436  13.473  -1.648  1.00  0.00     0.000 HD
ATOM    360    H REC     1       7.455  15.606   0.003  1.00  0.00     0.000 HD
ATOM    361    H REC     1       4.817  15.149   0.460  1.00  0.00     0.000 HD
ATOM    362    H REC     1       4.637  12.911   1.492  1.00  0.00     0.000 HD
ATOM    363    H REC     1       5.692  13.513   3.840  1.00  0.00     0.000 HD
ATOM    364    H REC     1       3.956  15.176   5.407  1.00  0.00     0.000 HD
ATOM    365    H REC     1       1.444  16.017   4.286  1.00  0.00     0.000 HD
ATOM    366    H REC     1       2.224  13.259   5.679  1.00  0.00     0.000 HD
ATOM    367    H REC     1      -3.812   6.373   5.478  1.00  0.00     0.000 HD
ATOM    368    H REC     1       3.125  11.573   7.460  1.00  0.00     0.000 HD
ATOM    369    H REC     1       5.839  10.656   7.551  1.00  0.00     0.000 HD
ATOM    370    H REC     1       3.725  12.370   9.450  1.00  0.00     0.000 HD
ATOM    371    H REC     1       6.054  11.116   9.387  1.00  0.00     0.000 HD
ATOM    372    H REC     1      10.472  12.667   9.395  1.00  0.00     0.000 HD
ATOM    373    H REC     1      10.853  16.567   7.196  1.00  0.00     0.000 HD
ATOM    374    H REC     1      15.087  15.532   6.247  1.00  0.00     0.000 HD
ATOM    375    H REC     1      19.520  17.994   6.970  1.00  0.00     0.000 HD
ATOM    376    H REC     1      22.827  15.162   7.535  1.00  0.00     0.000 HD
ATOM    377    H REC     1      21.824  14.451   9.285  1.00  0.00     0.000 HD
ATOM    378    H REC     1      25.062  13.266  10.112  1.00  0.00     0.000 HD
ATOM    379    H REC     1      20.123  11.185  11.298  1.00  0.00     0.000 HD
ATOM    380    H REC     1      18.268  12.885  18.319  1.00  0.00     0.000 HD
ATOM    381    H REC     1      15.424  12.679  18.511  1.00  0.00     0.000 HD
ATOM    382    H REC     1      14.713  11.441  16.540  1.00  0.00     0.000 HD
ATOM    383    H REC     1       7.968  15.853  15.467  1.00  0.00     0.000 HD
ATOM    384    H REC     1      13.638   8.505  16.162  1.00  0.00     0.000 HD
ATOM    385    H REC     1      13.319   7.281  13.926  1.00  0.00     0.000 HD
TER
