REMARK  Prepared by Open Docking (odock)
REMARK  19 atoms, 5 rotatable bonds
TORSDOF 5
ATOM      1  C1  UNL     1       5.089  -0.280   0.173  1.00  0.00     0.000 C 
ATOM      2  O2  UNL     1       4.956  -1.473   0.030  1.00  0.00     0.000 OA
ATOM      3  O3  UNL     1       6.299   0.233   0.444  1.00  0.00     0.000 OA
ATOM      4  C4  UNL     1       3.896   0.631   0.039  1.00  0.00     0.000 C 
ATOM      5  C5  UNL     1       2.651  -0.200  -0.276  1.00  0.00     0.000 C 
ATOM      6  C6  UNL     1       1.440   0.725  -0.412  1.00  0.00     0.000 C 
ATOM      7  C7  UNL     1       0.196  -0.106  -0.727  1.00  0.00     0.000 C 
ATOM      8  C8  UNL     1      -1.015   0.819  -0.863  1.00  0.00     0.000 C 
ATOM      9  S9  UNL     1      -1.419   1.604   0.751  1.00  0.00     0.000 S 
ATOM     10  C10 UNL     1      -3.205   1.827   0.371  1.00  0.00     0.000 C 
ATOM     11  C11 UNL     1      -3.530   0.581  -0.476  1.00  0.00     0.000 C 
ATOM     12  N12 UNL     1      -3.970  -0.507   0.412  1.00  0.00     0.000 N 
ATOM     13  C13 UNL     1      -3.141  -1.549   0.271  1.00  0.00     0.000 C 
ATOM     14  O14 UNL     1      -3.271  -2.589   0.888  1.00  0.00     0.000 OA
ATOM     15  N15 UNL     1      -2.154  -1.343  -0.612  1.00  0.00     0.000 N 
ATOM     16  C16 UNL     1      -2.289   0.010  -1.175  1.00  0.00     0.000 C 
ATOM     17  H17 UNL     1       6.408   1.210   0.561  1.00  0.00     0.000 HD
ATOM     18  H18 UNL     1      -4.785  -0.472   1.041  1.00  0.00     0.000 HD
ATOM     19  H19 UNL     1      -1.419  -2.022  -0.857  1.00  0.00     0.000 HD
