MODEL
REMARK VINA RESULT:    -5.5  0.000  0.000
REMARK INTER + INTRA:         -5.5
REMARK Run: 1
ROOT
ATOM      5   C5 UNL     1      12.786   8.017   1.144  1.00  0.00     0.000 A 
ATOM      6   C6 UNL     1      13.071   7.523   2.422  1.00  0.00     0.000 A 
ATOM      7   C7 UNL     1      14.206   7.955   3.115  1.00  0.00     0.000 A 
ATOM      8   C8 UNL     1      15.078   8.892   2.545  1.00  0.00     0.000 A 
ATOM      9   C9 UNL     1      14.790   9.384   1.263  1.00  0.00     0.000 A 
ATOM     10  C10 UNL     1      13.656   8.952   0.572  1.00  0.00     0.000 A 
ENDROOT
BRANCH   5   4
ATOM      4   C4 UNL     1      11.563   7.544   0.394  1.00  0.00     0.000 C 
ENDBRANCH
BRANCH   8  11
ATOM     11  C11 UNL     1      16.307   9.349   3.310  1.00  0.00     0.000 C 
ATOM     12  C12 UNL     1      17.504   9.578   2.384  1.00  0.00     0.000 C 
ENDBRANCH
BRANCH   4   2
ATOM      1   C1 UNL     1      10.713   5.229   0.876  1.00  0.00     0.000 C 
ATOM      2   C2 UNL     1      11.624   6.063  -0.027  1.00  0.00     0.000 C 
ATOM      3   C3 UNL     1      11.220   5.866  -1.491  1.00  0.00     0.000 C 
ENDBRANCH
BRANCH  11  13
ATOM     13  C13 UNL     1      16.675   8.380   4.417  1.00  0.00     0.000 C 
ATOM     14  O14 UNL     1      17.719   7.757   4.534  1.00  0.00     0.000 OA
ATOM     15  O15 UNL     1      15.689   8.227   5.327  1.00  0.00     0.000 OA
ATOM     16  H16 UNL     1      15.817   7.618   6.097  1.00  0.00     0.000 HD
ENDBRANCH
TORSDOF 4
ENDMDL
MODEL
REMARK VINA RESULT:    -5.4  0.000  0.000
REMARK INTER + INTRA:         -5.4
REMARK Run: 1
ROOT
ATOM      5   C5 UNL     1      11.816   6.353   1.794  1.00  0.00     0.000 A 
ATOM      6   C6 UNL     1      12.418   6.157   3.043  1.00  0.00     0.000 A 
ATOM      7   C7 UNL     1      13.438   7.006   3.481  1.00  0.00     0.000 A 
ATOM      8   C8 UNL     1      13.878   8.069   2.681  1.00  0.00     0.000 A 
ATOM      9   C9 UNL     1      13.274   8.261   1.430  1.00  0.00     0.000 A 
ATOM     10  C10 UNL     1      12.254   7.412   0.992  1.00  0.00     0.000 A 
ENDROOT
BRANCH   5   4
ATOM      4   C4 UNL     1      10.718   5.431   1.319  1.00  0.00     0.000 C 
ENDBRANCH
BRANCH   8  11
ATOM     11  C11 UNL     1      14.988   8.980   3.172  1.00  0.00     0.000 C 
ATOM     12  C12 UNL     1      15.687   9.702   2.017  1.00  0.00     0.000 C 
ENDBRANCH
BRANCH   4   2
ATOM      1   C1 UNL     1       9.921   3.725  -0.345  1.00  0.00     0.000 C 
ATOM      2   C2 UNL     1      11.031   4.725  -0.015  1.00  0.00     0.000 C 
ATOM      3   C3 UNL     1      11.188   5.720  -1.168  1.00  0.00     0.000 C 
ENDBRANCH
BRANCH  11  13
ATOM     13  C13 UNL     1      16.002   8.231   4.014  1.00  0.00     0.000 C 
ATOM     14  O14 UNL     1      17.006   7.656   3.622  1.00  0.00     0.000 OA
ATOM     15  O15 UNL     1      15.688   8.225   5.328  1.00  0.00     0.000 OA
ATOM     16  H16 UNL     1      16.279   7.765   5.976  1.00  0.00     0.000 HD
ENDBRANCH
TORSDOF 4
ENDMDL
MODEL
REMARK VINA RESULT:    -5.3  0.000  0.000
REMARK INTER + INTRA:         -5.3
REMARK Run: 1
ROOT
ATOM      5   C5 UNL     1      11.211   5.959   1.477  1.00  0.00     0.000 A 
ATOM      6   C6 UNL     1      11.752   7.076   0.831  1.00  0.00     0.000 A 
ATOM      7   C7 UNL     1      12.771   7.821   1.433  1.00  0.00     0.000 A 
ATOM      8   C8 UNL     1      13.269   7.464   2.692  1.00  0.00     0.000 A 
ATOM      9   C9 UNL     1      12.723   6.344   3.337  1.00  0.00     0.000 A 
ATOM     10  C10 UNL     1      11.705   5.600   2.735  1.00  0.00     0.000 A 
ENDROOT
BRANCH   5   4
ATOM      4   C4 UNL     1      10.106   5.158   0.828  1.00  0.00     0.000 C 
ENDBRANCH
BRANCH   8  11
ATOM     11  C11 UNL     1      14.374   8.285   3.333  1.00  0.00     0.000 C 
ATOM     12  C12 UNL     1      15.304   8.905   2.288  1.00  0.00     0.000 C 
ENDBRANCH
BRANCH   4   2
ATOM      1   C1 UNL     1      11.563   3.139   0.485  1.00  0.00     0.000 C 
ATOM      2   C2 UNL     1      10.606   4.121  -0.196  1.00  0.00     0.000 C 
ATOM      3   C3 UNL     1       9.452   3.350  -0.842  1.00  0.00     0.000 C 
ENDBRANCH
BRANCH  11  13
ATOM     13  C13 UNL     1      15.173   7.471   4.333  1.00  0.00     0.000 C 
ATOM     14  O14 UNL     1      15.363   6.265   4.318  1.00  0.00     0.000 OA
ATOM     15  O15 UNL     1      15.688   8.225   5.328  1.00  0.00     0.000 OA
ATOM     16  H16 UNL     1      16.230   7.802   6.040  1.00  0.00     0.000 HD
ENDBRANCH
TORSDOF 4
ENDMDL
MODEL
REMARK VINA RESULT:    -5.3  0.000  0.000
REMARK INTER + INTRA:         -5.3
REMARK Run: 1
ROOT
ATOM      5   C5 UNL     1      11.079   5.849   0.993  1.00  0.00     0.000 A 
ATOM      6   C6 UNL     1      11.880   5.830   2.141  1.00  0.00     0.000 A 
ATOM      7   C7 UNL     1      12.810   6.846   2.376  1.00  0.00     0.000 A 
ATOM      8   C8 UNL     1      12.959   7.904   1.470  1.00  0.00     0.000 A 
ATOM      9   C9 UNL     1      12.157   7.919   0.320  1.00  0.00     0.000 A 
ATOM     10  C10 UNL     1      11.227   6.903   0.085  1.00  0.00     0.000 A 
ENDROOT
BRANCH   5   4
ATOM      4   C4 UNL     1      10.079   4.747   0.737  1.00  0.00     0.000 C 
ENDBRANCH
BRANCH   8  11
ATOM     11  C11 UNL     1      13.976   8.998   1.739  1.00  0.00     0.000 C 
ATOM     12  C12 UNL     1      14.864   9.265   0.522  1.00  0.00     0.000 C 
ENDBRANCH
BRANCH   4   2
ATOM      1   C1 UNL     1       8.950   3.287  -0.969  1.00  0.00     0.000 C 
ATOM      2   C2 UNL     1      10.209   4.098  -0.655  1.00  0.00     0.000 C 
ATOM      3   C3 UNL     1      10.438   5.139  -1.754  1.00  0.00     0.000 C 
ENDBRANCH
BRANCH  11  13
ATOM     13  C13 UNL     1      14.828   8.689   2.956  1.00  0.00     0.000 C 
ATOM     14  O14 UNL     1      15.688   9.399   3.453  1.00  0.00     0.000 OA
ATOM     15  O15 UNL     1      14.563   7.475   3.485  1.00  0.00     0.000 OA
ATOM     16  H16 UNL     1      15.058   7.164   4.284  1.00  0.00     0.000 HD
ENDBRANCH
TORSDOF 4
ENDMDL
MODEL
REMARK VINA RESULT:    -5.3  0.000  0.000
REMARK INTER + INTRA:         -5.3
REMARK Run: 1
ROOT
ATOM      5   C5 UNL     1      10.548   4.950  -0.523  1.00  0.00     0.000 A 
ATOM      6   C6 UNL     1      10.622   4.961   0.875  1.00  0.00     0.000 A 
ATOM      7   C7 UNL     1      11.311   5.978   1.543  1.00  0.00     0.000 A 
ATOM      8   C8 UNL     1      11.938   7.006   0.827  1.00  0.00     0.000 A 
ATOM      9   C9 UNL     1      11.863   6.991  -0.573  1.00  0.00     0.000 A 
ATOM     10  C10 UNL     1      11.174   5.975  -1.240  1.00  0.00     0.000 A 
ENDROOT
BRANCH   5   4
ATOM      4   C4 UNL     1       9.809   3.847  -1.244  1.00  0.00     0.000 C 
ENDBRANCH
BRANCH   8  11
ATOM     11  C11 UNL     1      12.683   8.102   1.568  1.00  0.00     0.000 C 
ATOM     12  C12 UNL     1      13.831   8.676   0.734  1.00  0.00     0.000 C 
ENDBRANCH
BRANCH   4   2
ATOM      1   C1 UNL     1       8.563   3.350  -3.369  1.00  0.00     0.000 C 
ATOM      2   C2 UNL     1       9.823   3.987  -2.779  1.00  0.00     0.000 C 
ATOM      3   C3 UNL     1       9.916   5.450  -3.220  1.00  0.00     0.000 C 
ENDBRANCH
BRANCH  11  13
ATOM     13  C13 UNL     1      13.197   7.624   2.913  1.00  0.00     0.000 C 
ATOM     14  O14 UNL     1      12.549   7.100   3.805  1.00  0.00     0.000 OA
ATOM     15  O15 UNL     1      14.518   7.850   3.078  1.00  0.00     0.000 OA
ATOM     16  H16 UNL     1      14.965   7.579   3.919  1.00  0.00     0.000 HD
ENDBRANCH
TORSDOF 4
ENDMDL
MODEL
REMARK VINA RESULT:    -5.3  0.000  0.000
REMARK INTER + INTRA:         -5.3
REMARK Run: 1
ROOT
ATOM      5   C5 UNL     1      11.941   6.500   1.897  1.00  0.00     0.000 A 
ATOM      6   C6 UNL     1      12.315   7.606   1.125  1.00  0.00     0.000 A 
ATOM      7   C7 UNL     1      13.355   8.443   1.540  1.00  0.00     0.000 A 
ATOM      8   C8 UNL     1      14.042   8.193   2.734  1.00  0.00     0.000 A 
ATOM      9   C9 UNL     1      13.663   7.085   3.506  1.00  0.00     0.000 A 
ATOM     10  C10 UNL     1      12.624   6.248   3.092  1.00  0.00     0.000 A 
ENDROOT
BRANCH   5   4
ATOM      4   C4 UNL     1      10.813   5.600   1.451  1.00  0.00     0.000 C 
ENDBRANCH
BRANCH   8  11
ATOM     11  C11 UNL     1      15.167   9.113   3.171  1.00  0.00     0.000 C 
ATOM     12  C12 UNL     1      15.891   9.738   1.976  1.00  0.00     0.000 C 
ENDBRANCH
BRANCH   4   2
ATOM      1   C1 UNL     1      12.177   3.583   0.828  1.00  0.00     0.000 C 
ATOM      2   C2 UNL     1      11.197   4.638   0.310  1.00  0.00     0.000 C 
ATOM      3   C3 UNL     1       9.972   3.950  -0.297  1.00  0.00     0.000 C 
ENDBRANCH
BRANCH  11  13
ATOM     13  C13 UNL     1      16.158   8.403   4.074  1.00  0.00     0.000 C 
ATOM     14  O14 UNL     1      17.268   7.994   3.773  1.00  0.00     0.000 OA
ATOM     15  O15 UNL     1      15.688   8.225   5.328  1.00  0.00     0.000 OA
ATOM     16  H16 UNL     1      16.249   7.773   6.007  1.00  0.00     0.000 HD
ENDBRANCH
TORSDOF 4
ENDMDL
MODEL
REMARK VINA RESULT:    -5.2  0.000  0.000
REMARK INTER + INTRA:         -5.2
REMARK Run: 1
ROOT
ATOM      5   C5 UNL     1      11.442   6.215   1.271  1.00  0.00     0.000 A 
ATOM      6   C6 UNL     1      11.667   7.345   0.476  1.00  0.00     0.000 A 
ATOM      7   C7 UNL     1      12.664   8.265   0.814  1.00  0.00     0.000 A 
ATOM      8   C8 UNL     1      13.457   8.074   1.953  1.00  0.00     0.000 A 
ATOM      9   C9 UNL     1      13.228   6.941   2.748  1.00  0.00     0.000 A 
ATOM     10  C10 UNL     1      12.232   6.022   2.410  1.00  0.00     0.000 A 
ENDROOT
BRANCH   5   4
ATOM      4   C4 UNL     1      10.360   5.225   0.909  1.00  0.00     0.000 C 
ENDBRANCH
BRANCH   8  11
ATOM     11  C11 UNL     1      14.534   9.083   2.307  1.00  0.00     0.000 C 
ATOM     12  C12 UNL     1      15.537   9.272   1.166  1.00  0.00     0.000 C 
ENDBRANCH
BRANCH   4   2
ATOM      1   C1 UNL     1      11.786   3.182   0.580  1.00  0.00     0.000 C 
ATOM      2   C2 UNL     1      10.812   4.148  -0.097  1.00  0.00     0.000 C 
ATOM      3   C3 UNL     1       9.628   3.367  -0.672  1.00  0.00     0.000 C 
ENDBRANCH
BRANCH  11  13
ATOM     13  C13 UNL     1      15.257   8.711   3.587  1.00  0.00     0.000 C 
ATOM     14  O14 UNL     1      16.063   9.391   4.203  1.00  0.00     0.000 OA
ATOM     15  O15 UNL     1      14.938   7.475   4.027  1.00  0.00     0.000 OA
ATOM     16  H16 UNL     1      15.348   7.124   4.857  1.00  0.00     0.000 HD
ENDBRANCH
TORSDOF 4
ENDMDL
MODEL
REMARK VINA RESULT:    -5.2  0.000  0.000
REMARK INTER + INTRA:         -5.2
REMARK Run: 1
ROOT
ATOM      5   C5 UNL     1      10.764   5.349  -1.110  1.00  0.00     0.000 A 
ATOM      6   C6 UNL     1      10.579   4.560   0.032  1.00  0.00     0.000 A 
ATOM      7   C7 UNL     1      11.243   4.867   1.223  1.00  0.00     0.000 A 
ATOM      8   C8 UNL     1      12.104   5.970   1.298  1.00  0.00     0.000 A 
ATOM      9   C9 UNL     1      12.287   6.757   0.152  1.00  0.00     0.000 A 
ATOM     10  C10 UNL     1      11.624   6.450  -1.038  1.00  0.00     0.000 A 
ENDROOT
BRANCH   5   4
ATOM      4   C4 UNL     1      10.051   5.012  -2.398  1.00  0.00     0.000 C 
ENDBRANCH
BRANCH   8  11
ATOM     11  C11 UNL     1      12.818   6.289   2.599  1.00  0.00     0.000 C 
ATOM     12  C12 UNL     1      11.950   5.975   3.820  1.00  0.00     0.000 C 
ENDBRANCH
BRANCH   4   2
ATOM      1   C1 UNL     1       8.850   3.193  -1.147  1.00  0.00     0.000 C 
ATOM      2   C2 UNL     1       9.535   3.560  -2.464  1.00  0.00     0.000 C 
ATOM      3   C3 UNL     1       8.563   3.350  -3.628  1.00  0.00     0.000 C 
ENDBRANCH
BRANCH  11  13
ATOM     13  C13 UNL     1      13.289   7.730   2.645  1.00  0.00     0.000 C 
ATOM     14  O14 UNL     1      12.654   8.724   2.328  1.00  0.00     0.000 OA
ATOM     15  O15 UNL     1      14.563   7.850   3.078  1.00  0.00     0.000 OA
ATOM     16  H16 UNL     1      14.979   8.746   3.150  1.00  0.00     0.000 HD
ENDBRANCH
TORSDOF 4
ENDMDL
MODEL
REMARK VINA RESULT:    -5.1  0.000  0.000
REMARK INTER + INTRA:         -5.1
REMARK Run: 1
ROOT
ATOM      5   C5 UNL     1      10.438   4.818  -0.273  1.00  0.00     0.000 A 
ATOM      6   C6 UNL     1      10.623   5.136   1.077  1.00  0.00     0.000 A 
ATOM      7   C7 UNL     1      11.299   6.302   1.448  1.00  0.00     0.000 A 
ATOM      8   C8 UNL     1      11.804   7.175   0.476  1.00  0.00     0.000 A 
ATOM      9   C9 UNL     1      11.619   6.853  -0.876  1.00  0.00     0.000 A 
ATOM     10  C10 UNL     1      10.942   5.688  -1.247  1.00  0.00     0.000 A 
ENDROOT
BRANCH   5   4
ATOM      4   C4 UNL     1       9.713   3.555  -0.672  1.00  0.00     0.000 C 
ENDBRANCH
BRANCH   8  11
ATOM     11  C11 UNL     1      12.538   8.436   0.895  1.00  0.00     0.000 C 
ATOM     12  C12 UNL     1      13.438   8.971  -0.221  1.00  0.00     0.000 C 
ENDBRANCH
BRANCH   4   2
ATOM      1   C1 UNL     1       9.313   1.102  -0.297  1.00  0.00     0.000 C 
ATOM      2   C2 UNL     1      10.192   2.297   0.078  1.00  0.00     0.000 C 
ATOM      3   C3 UNL     1      11.658   1.973  -0.224  1.00  0.00     0.000 C 
ENDBRANCH
BRANCH  11  13
ATOM     13  C13 UNL     1      13.341   8.225   2.164  1.00  0.00     0.000 C 
ATOM     14  O14 UNL     1      14.465   8.640   2.403  1.00  0.00     0.000 OA
ATOM     15  O15 UNL     1      12.688   7.475   3.078  1.00  0.00     0.000 OA
ATOM     16  H16 UNL     1      13.115   7.271   3.948  1.00  0.00     0.000 HD
ENDBRANCH
TORSDOF 4
ENDMDL
