REMARK  Generated by Open Docking preparation
ATOM      1    O REC     1       4.319   0.000   0.000  1.00  0.00     0.000 OA
ATOM      2    C REC     1       4.059   1.477   0.000  1.00  0.00     0.000 C 
ATOM      3    C REC     1       3.309   2.776   0.000  1.00  0.00     0.000 C 
ATOM      4    O REC     1       2.160   3.740   0.000  1.00  0.00     0.000 OA
ATOM      5    C REC     1       0.750   4.253   0.000  1.00  0.00     0.000 C 
ATOM      6    C REC     1      -0.750   4.253   0.000  1.00  0.00     0.000 C 
ATOM      7    O REC     1      -2.160   3.740   0.000  1.00  0.00     0.000 OA
ATOM      8    C REC     1      -3.309   2.776   0.000  1.00  0.00     0.000 C 
ATOM      9    C REC     1      -4.059   1.477   0.000  1.00  0.00     0.000 C 
ATOM     10    O REC     1      -4.319   0.000   0.000  1.00  0.00     0.000 OA
ATOM     11    C REC     1      -4.059  -1.477   0.000  1.00  0.00     0.000 C 
ATOM     12    C REC     1      -3.309  -2.776   0.000  1.00  0.00     0.000 C 
ATOM     13    O REC     1      -2.160  -3.740   0.000  1.00  0.00     0.000 OA
ATOM     14    C REC     1      -0.750  -4.253   0.000  1.00  0.00     0.000 C 
ATOM     15    C REC     1       0.750  -4.253   0.000  1.00  0.00     0.000 C 
ATOM     16    O REC     1       2.160  -3.740   0.000  1.00  0.00     0.000 OA
ATOM     17    C REC     1       3.309  -2.776   0.000  1.00  0.00     0.000 C 
ATOM     18    C REC     1       4.059  -1.477   0.000  1.00  0.00     0.000 C 
ATOM     19    O REC     1       4.059   1.477   1.430  1.00  0.00     0.000 OA
ATOM     20    H REC     1       4.059   1.477   2.390  1.00  0.00     0.000 HD
ATOM     21    O REC     1       0.750   4.253  -1.430  1.00  0.00     0.000 OA
ATOM     22    H REC     1       0.750   4.253  -2.390  1.00  0.00     0.000 HD
ATOM     23    O REC     1      -3.309   2.776   1.430  1.00  0.00     0.000 OA
ATOM     24    H REC     1      -3.309   2.776   2.390  1.00  0.00     0.000 HD
ATOM     25    O REC     1      -4.059  -1.477  -1.430  1.00  0.00     0.000 OA
ATOM     26    H REC     1      -4.059  -1.477  -2.390  1.00  0.00     0.000 HD
ATOM     27    O REC     1      -0.750  -4.253   1.430  1.00  0.00     0.000 OA
ATOM     28    H REC     1      -0.750  -4.253   2.390  1.00  0.00     0.000 HD
ATOM     29    O REC     1       3.309  -2.776  -1.430  1.00  0.00     0.000 OA
ATOM     30    H REC     1       3.309  -2.776  -2.390  1.00  0.00     0.000 HD
TER
